ITEM: TIMESTEP
0
ITEM: NUMBER OF ATOMS
148
ITEM: BOX BOUNDS pp pp pp
0.0000000000000000e+00 3.0000000000000000e+01
0.0000000000000000e+00 3.0000000000000000e+01
-5.0000000000000000e-01 5.0000000000000000e-01
ITEM: ATOMS id type xs ys zs
1 1 0.246226 0.314579 0.5
2 1 0.618674 0.0611275 0.5
3 1 0.308631 0.16695 0.5
4 1 0.193258 0.0930237 0.5
5 1 0.485595 0.394456 0.5
6 1 0.767065 0.0688769 0.5
7 1 0.796809 0.968086 0.5
8 1 0.99873 0.651426 0.5
9 1 0.692249 0.636393 0.5
10 1 0.605514 0.872006 0.5
11 1 0.246569 0.085775 0.5
12 1 0.00568234 0.503008 0.5
13 1 0.688466 0.0551252 0.5
14 1 0.0801079 0.373262 0.5
15 1 0.196023 0.564541 0.5
16 1 0.590594 0.110243 0.5
17 1 0.470114 0.202615 0.5
18 1 0.826239 0.596611 0.5
19 1 0.285208 0.486121 0.5
20 1 0.883818 0.330481 0.5
21 1 0.995675 0.307461 0.5
22 1 0.893022 0.0252744 0.5
23 1 0.919752 0.26564 0.5
24 1 0.0123502 0.57041 0.5
25 1 0.707279 0.234714 0.5
26 1 0.993691 0.971073 0.5
27 1 0.0455538 0.622947 0.5
28 1 0.141424 0.911053 0.5
29 1 0.688875 0.918921 0.5
30 1 0.748121 0.66681 0.5
31 1 0.373066 0.116362 0.5
32 1 0.65218 0.192219 0.5
33 1 0.303165 0.289844 0.5
34 1 0.161328 0.433468 0.5
35 1 0.663799 0.462574 0.5
36 1 0.840791 0.180175 0.5
37 1 0.17548 0.285939 0.5
38 1 0.929901 0.840481 0.5
39 1 0.381795 0.826867 0.5
40 1 0.649871 0.376112 0.5
41 1 0.0777029 0.952499 0.5
42 1 0.700141 0.273347 0.5
43 1 0.489516 0.298371 0.5
44 1 0.79515 0.0845715 0.5
45 1 0.803 0.0141633 0.5
46 1 0.566771 0.724305 0.5
47 1 0.146173 0.736599 0.5
48 1 0.775738 0.834433 0.5
49 1 0.763503 0.193701 0.5
50 1 0.86007 0.194163 0.5
51 1 0.662319 0.590709 0.5
52 1 0.617884 0.782878 0.5
53 1 0.296574 0.518528 0.5
54 1 0.161897 0.00897575 0.5
55 1 0.486267 0.688431 0.5
56 1 0.872549 0.938801 0.5
57 1 0.572946 0.501273 0.5
58 1 0.225211 0.124692 0.5
59 1 0.31804 0.305511 0.5
60 1 0.326813 0.740901 0.5
61 1 0.24505 0.558663 0.5
62 1 0.238385 0.540716 0.5
63 1 0.889604 0.571311 0.5
64 1 0.579119 0.24843 0.5
65 1 0.203577 0.514433 0.5
66 1 0.844802 0.583646 0.5
67 1 0.450113 0.042861 0.5
68 1 0.173069 0.776159 0.5
69 1 0.179084 0.862687 0.5
70 1 0.838932 0.92953 0.5
71 1 0.657587 0.0610699 0.5
72 1 0.212648 0.970204 0.5
73 1 0.909068 0.701532 0.5
74 1 0.192702 0.734877 0.5
75 1 0.0897399 0.258713 0.5
76 1 0.888789 0.880377 0.5
77 1 0.498422 0.978552 0.5
78 1 0.454321 0.767772 0.5
79 1 0.545994 0.521218 0.5
80 1 0.730298 0.110085 0.5
81 1 0.91719 0.218151 0.5
82 1 0.480206 0.828689 0.5
83 1 0.42929 0.0735252 0.5
84 1 0.462519 0.549829 0.5
85 1 0.902439 0.29621 0.5
86 1 0.361726 0.521848 0.5
87 1 0.247483 0.447255 0.5
88 1 0.798007 0.102196 0.5
89 1 0.495003 0.522162 0.5
90 1 0.876038 0.569021 0.5
91 1 0.859873 0.88141 0.5
92 1 0.285935 0.704218 0.5
93 1 0.354536 0.690682 0.5
94 1 0.034615 0.774842 0.5
95 1 0.0805121 0.166308 0.5
96 1 0.191924 0.660896 0.5
97 1 0.376592 0.378734 0.5
98 1 0.692191 0.660812 0.5
99 1 0.135286 0.757111 0.5
100 1 0.327116 0.83323 0.5
101 1 0.670806 0.229451 0.5
102 1 0.879439 0.731836 0.5
103 1 0.926915 0.655062 0.5
104 1 0.594018 0.653427 0.5
105 1 0.71142 0.831329 0.5
106 1 0.769736 0.961213 0.5
107 1 0.126711 0.636204 0.5
108 1 0.774038 0.263638 0.5
109 1 0.330799 0.736453 0.5
110 1 0.614685 0.0120585 0.5
111 1 0.109803 0.463952 0.5
112 1 0.0789242 0.478702 0.5
113 1 0.267451 0.0570426 0.5
114 1 0.30958 0.119227 0.5
115 1 0.120145 0.27337 0.5
116 1 0.0831895 0.165482 0.5
117 1 0.290079 0.361965 0.5
118 1 0.163753 0.197002 0.5
119 1 0.405977 0.253595 0.5
120 1 0.697353 0.405104 0.5
121 1 0.99513 0.148747 0.5
122 1 0.831987 0.212193 0.5
123 1 0.559461 0.86805 0.5
124 1 0.544977 0.42525 0.5
125 1 0.930863 0.0100105 0.5
126 1 0.15682 0.676225 0.5
127 1 0.335518 0.0586389 0.5
128 1 0.189646 0.385685 0.5
129 1 0.546158 0.269306 0.5
130 1 0.93829 0.848207 0.5
131 1 0.494204 0.0883319 0.5
132 1 0.185781 0.414627 0.5
133 1 0.138847 0.597436 0.5
134 1 0.553355 0.238115 0.5
135 1 0.98196 0.800491 0.5
136 1 0.0469089 0.397885 0.5
137 1 0.27475 0.719853 0.5
138 1 0.614028 0.975266 0.5
139 1 0.950812 0.296013 0.5
140 1 0.520609 0.878648 0.5
141 1 0.400162 0.527029 0.5
142 1 0.225192 0.802348 0.5
143 1 0.201635 0.882527 0.5
144 1 0.0548054 0.114293 0.5
145 1 0.063983 0.362358 0.5
146 1 0.0362689 0.571006 0.5
147 1 0.965241 0.809448 0.5
148 2 0.524491 0.471045 0.5
ITEM: TIMESTEP
200
ITEM: NUMBER OF ATOMS
148
ITEM: BOX BOUNDS pp pp pp
0.0000000000000000e+00 3.0000000000000000e+01
0.0000000000000000e+00 3.0000000000000000e+01
-5.0000000000000000e-01 5.0000000000000000e-01
ITEM: ATOMS id type xs ys zs
1 1 0.248232 0.314815 0.5
2 1 0.494525 0.0111746 0.5
3 1 0.307215 0.16172 0.5
4 1 0.147289 0.0242911 0.5
5 1 0.395347 0.086615 0.5
6 1 0.739119 0.0724598 0.5
7 1 0.810558 0.970494 0.5
8 1 0.99682 0.645665 0.5
9 1 0.444854 0.652214 0.5
10 1 0.606392 0.869981 0.5
11 1 0.244035 0.091369 0.5
12 1 0.00959604 0.467151 0.5
13 1 0.749825 0.0288815 0.5
14 1 0.170795 0.395336 0.5
15 1 0.297233 0.524277 0.5
16 1 0.697097 0.085817 0.5
17 1 0.619891 0.170384 0.5
18 1 0.0273559 0.533222 0.5
19 1 0.302647 0.378319 0.5
20 1 0.90117 0.336661 0.5
21 1 0.944038 0.215016 0.5
22 1 0.892467 0.0197093 0.5
23 1 0.92533 0.268308 0.5
24 1 0.979246 0.513172 0.5
25 1 0.71204 0.191029 0.5
26 1 0.988913 0.968846 0.5
27 1 0.0477426 0.795131 0.5
28 1 0.111907 0.866992 0.5
29 1 0.690792 0.898578 0.5
30 1 0.745605 0.372954 0.5
31 1 0.574723 0.0615136 0.5
32 1 0.637595 0.00501099 0.5
33 1 0.25869 0.264788 0.5
34 1 0.201035 0.512445 0.5
35 1 0.843003 0.403145 0.5
36 1 0.877107 0.155615 0.5
37 1 0.175515 0.289461 0.5
38 1 0.857692 0.74441 0.5
39 1 0.388428 0.819763 0.5
40 1 0.702989 0.347288 0.5
41 1 0.258104 0.940864 0.5
42 1 0.682419 0.327768 0.5
43 1 0.484531 0.283756 0.5
44 1 0.66368 0.943433 0.5
45 1 0.865789 0.957366 0.5
46 1 0.514893 0.85537 0.5
47 1 0.178413 0.689867 0.5
48 1 0.778615 0.832336 0.5
49 1 0.861716 0.17263 0.5
50 1 0.898811 0.220797 0.5
51 1 0.680877 0.504119 0.5
52 1 0.614481 0.780975 0.5
53 1 0.33849 0.591345 0.5
54 1 0.166715 0.00485931 0.5
55 1 0.82667 0.580482 0.5
56 1 0.969857 0.00277004 0.5
57 1 0.94471 0.861607 0.5
58 1 0.268636 0.0773883 0.5
59 1 0.384965 0.344614 0.5
60 1 0.168268 0.865583 0.5
61 1 0.316701 0.743238 0.5
62 1 0.224334 0.361522 0.5
63 1 0.218322 0.630347 0.5
64 1 0.586079 0.258252 0.5
65 1 0.156803 0.517548 0.5
66 1 0.865598 0.711312 0.5
67 1 0.48065 0.0590874 0.5
68 1 0.172811 0.780748 0.5
69 1 0.121203 0.833119 0.5
70 1 0.825592 0.950704 0.5
71 1 0.767561 0.894 0.5
72 1 0.21297 0.0863112 0.5
73 1 0.908415 0.69992 0.5
74 1 0.201115 0.746574 0.5
75 1 0.0837393 0.258995 0.5
76 1 0.882961 0.893058 0.5
77 1 0.477185 0.992927 0.5
78 1 0.449344 0.768873 0.5
79 1 0.665241 0.72902 0.5
80 1 0.725245 0.107824 0.5
81 1 0.878179 0.304943 0.5
82 1 0.475114 0.829092 0.5
83 1 0.4102 0.00762151 0.5
84 1 0.0835053 0.930407 0.5
85 1 0.904032 0.299516 0.5
86 1 0.372137 0.415359 0.5
87 1 0.258886 0.446095 0.5
88 1 0.690524 0.286355 0.5
89 1 0.358591 0.839407 0.5
90 1 0.666168 0.372533 0.5
91 1 0.812534 0.906881 0.5
92 1 0.399412 0.54905 0.5
93 1 0.0637794 0.529774 0.5
94 1 0.184979 0.715191 0.5
95 1 0.909798 0.180804 0.5
96 1 0.191239 0.663325 0.5
97 1 0.364801 0.395516 0.5
98 1 0.694993 0.720933 0.5
99 1 0.103975 0.810038 0.5
100 1 0.170671 0.0561952 0.5
101 1 0.62983 0.265241 0.5
102 1 0.901903 0.731172 0.5
103 1 0.93035 0.651334 0.5
104 1 0.53824 0.702945 0.5
105 1 0.70866 0.834374 0.5
106 1 0.754306 0.961649 0.5
107 1 0.109958 0.759121 0.5
108 1 0.602607 0.350406 0.5
109 1 0.484295 0.7516 0.5
110 1 0.60902 0.0166763 0.5
111 1 0.113128 0.467691 0.5
112 1 0.0776264 0.480081 0.5
113 1 0.265001 0.0350675 0.5
114 1 0.341053 0.122349 0.5
115 1 0.085797 0.357249 0.5
116 1 0.221751 0.164778 0.5
117 1 0.275432 0.341162 0.5
118 1 0.255443 0.193923 0.5
119 1 0.0432168 0.0777436 0.5
120 1 0.911671 0.478288 0.5
121 1 0.997976 0.154105 0.5
122 1 0.834326 0.214678 0.5
123 1 0.563507 0.873029 0.5
124 1 0.74865 0.190489 0.5
125 1 0.928435 0.0112914 0.5
126 1 0.155625 0.668564 0.5
127 1 0.338632 0.0587421 0.5
128 1 0.181283 0.367234 0.5
129 1 0.54762 0.271744 0.5
130 1 0.146414 0.259485 0.5
131 1 0.488669 0.086405 0.5
132 1 0.194336 0.427001 0.5
133 1 0.207119 0.597988 0.5
134 1 0.540927 0.228387 0.5
135 1 0.00804021 0.759531 0.5
136 1 0.0477952 0.394975 0.5
137 1 0.200783 0.776988 0.5
138 1 0.61005 0.970287 0.5
139 1 0.937169 0.300317 0.5
140 1 0.520238 0.966543 0.5
141 1 0.308332 0.500441 0.5
142 1 0.218011 0.875942 0.5
143 1 0.0220597 0.0923354 0.5
144 1 0.973432 0.306095 0.5
145 1 0.987131 0.336967 0.5
146 1 0.0852951 0.571589 0.5
147 1 0.809391 0.841263 0.5
148 2 0.524491 0.471054 0.5
ITEM: TIMESTEP
400
ITEM: NUMBER OF ATOMS
148
ITEM: BOX BOUNDS pp pp pp
0.0000000000000000e+00 3.0000000000000000e+01
0.0000000000000000e+00 3.0000000000000000e+01
-5.0000000000000000e-01 5.0000000000000000e-01
ITEM: ATOMS id type xs ys zs
1 1 0.992101 0.391501 0.5
2 1 0.383843 0.990842 0.5
3 1 0.415308 0.179446 0.5
4 1 0.0510976 0.959937 0.5
5 1 0.299459 0.10465 0.5
6 1 0.709795 0.0749122 0.5
7 1 0.745945 0.912404 0.5
8 1 0.994904 0.639909 0.5
9 1 0.0487684 0.806714 0.5
10 1 0.606503 0.868049 0.5
11 1 0.240477 0.114589 0.5
12 1 0.106118 0.445017 0.5
13 1 0.932867 0.184864 0.5
14 1 0.17667 0.33863 0.5
15 1 0.325575 0.600413 0.5
16 1 0.652658 0.075392 0.5
17 1 0.723012 0.158381 0.5
18 1 0.0276889 0.577818 0.5
19 1 0.23896 0.271877 0.5
20 1 0.92831 0.402954 0.5
21 1 0.0584735 0.366048 0.5
22 1 0.921719 0.971968 0.5
23 1 0.936787 0.279245 0.5
24 1 0.0312723 0.395928 0.5
25 1 0.836565 0.124564 0.5
26 1 0.102569 0.0371072 0.5
27 1 0.178671 0.844005 0.5
28 1 0.10655 0.956814 0.5
29 1 0.639227 0.823501 0.5
30 1 0.861852 0.212211 0.5
31 1 0.378103 0.853052 0.5
32 1 0.688153 0.893338 0.5
33 1 0.310893 0.150531 0.5
34 1 0.292101 0.598761 0.5
35 1 0.899067 0.311703 0.5
36 1 0.023279 0.991645 0.5
37 1 0.182952 0.254028 0.5
38 1 0.784225 0.515963 0.5
39 1 0.430516 0.783776 0.5
40 1 0.8525 0.373124 0.5
41 1 0.252292 0.952675 0.5
42 1 0.939601 0.626777 0.5
43 1 0.497104 0.280245 0.5
44 1 0.688262 0.842939 0.5
45 1 0.896269 0.93298 0.5
46 1 0.488693 0.850796 0.5
47 1 0.159266 0.675392 0.5
48 1 0.782546 0.785059 0.5
49 1 0.888877 0.15169 0.5
50 1 0.893136 0.271397 0.5
51 1 0.821806 0.379661 0.5
52 1 0.540709 0.770243 0.5
53 1 0.442795 0.750451 0.5
54 1 0.197016 0.961611 0.5
55 1 0.829666 0.498538 0.5
56 1 0.733501 0.872291 0.5
57 1 0.880297 0.9877 0.5
58 1 0.276369 0.0622507 0.5
59 1 0.358707 0.180311 0.5
60 1 0.216199 0.863307 0.5
61 1 0.364695 0.873496 0.5
62 1 0.25432 0.346646 0.5
63 1 0.372593 0.653607 0.5
64 1 0.594626 0.315153 0.5
65 1 0.160905 0.552945 0.5
66 1 0.89706 0.812515 0.5
67 1 0.362739 0.0209685 0.5
68 1 0.122456 0.793646 0.5
69 1 0.131341 0.942753 0.5
70 1 0.850494 0.963128 0.5
71 1 0.903468 0.850631 0.5
72 1 0.158764 0.0621985 0.5
73 1 0.870428 0.706163 0.5
74 1 0.307636 0.791805 0.5
75 1 0.0554594 0.227237 0.5
76 1 0.791632 0.882988 0.5
77 1 0.334192 0.667901 0.5
78 1 0.467242 0.806668 0.5
79 1 0.623991 0.77214 0.5
80 1 0.774482 0.935515 0.5
81 1 0.788249 0.300123 0.5
82 1 0.47853 0.828669 0.5
83 1 0.439932 0.81384 0.5
84 1 0.808292 0.783571 0.5
85 1 0.877809 0.311514 0.5
86 1 0.403081 0.276694 0.5
87 1 0.286687 0.442045 0.5
88 1 0.390461 0.236573 0.5
89 1 0.293228 0.894929 0.5
90 1 0.625308 0.326078 0.5
91 1 0.753491 0.720147 0.5
92 1 0.35382 0.606724 0.5
93 1 0.260367 0.651899 0.5
94 1 0.323591 0.634133 0.5
95 1 0.967805 0.0255441 0.5
96 1 0.199591 0.612081 0.5
97 1 0.38227 0.39216 0.5
98 1 0.682949 0.776978 0.5
99 1 0.923297 0.817159 0.5
100 1 0.973893 0.292505 0.5
101 1 0.620982 0.270587 0.5
102 1 0.0772721 0.66329 0.5
103 1 0.0491927 0.940826 0.5
104 1 0.489216 0.69305 0.5
105 1 0.675455 0.80691 0.5
106 1 0.739916 0.962727 0.5
107 1 0.134995 0.828699 0.5
108 1 0.700493 0.0930208 0.5
109 1 0.513668 0.812066 0.5
110 1 0.575961 0.0178399 0.5
111 1 0.100156 0.375898 0.5
112 1 0.130762 0.482877 0.5
113 1 0.263399 0.978157 0.5
114 1 0.313326 0.129974 0.5
115 1 0.160641 0.428776 0.5
116 1 0.449402 0.260329 0.5
117 1 0.329043 0.501039 0.5
118 1 0.286637 0.990565 0.5
119 1 0.363484 0.280952 0.5
120 1 0.93784 0.915304 0.5
121 1 0.00102795 0.159589 0.5
122 1 0.835543 0.218562 0.5
123 1 0.61948 0.798507 0.5
124 1 0.733492 0.182434 0.5
125 1 0.0666987 0.0432867 0.5
126 1 0.132231 0.640497 0.5
127 1 0.340428 0.0104532 0.5
128 1 0.0850681 0.277532 0.5
129 1 0.399716 0.344904 0.5
130 1 0.214674 0.25144 0.5
131 1 0.741468 0.225905 0.5
132 1 0.242531 0.477573 0.5
133 1 0.256066 0.689994 0.5
134 1 0.553999 0.317266 0.5
135 1 0.00435522 0.792197 0.5
136 1 0.908147 0.450812 0.5
137 1 0.186706 0.783704 0.5
138 1 0.604379 0.965806 0.5
139 1 0.0907228 0.404303 0.5
140 1 0.347854 0.891447 0.5
141 1 0.224879 0.534104 0.5
142 1 0.215492 0.926708 0.5
143 1 0.835713 0.0534118 0.5
144 1 0.814399 0.415901 0.5
145 1 0.947194 0.366562 0.5
146 1 0.278609 0.751432 0.5
147 1 0.732321 0.703332 0.5
148 2 0.524492 0.471054 0.5
ITEM: TIMESTEP
600
ITEM: NUMBER OF ATOMS
148
ITEM: BOX BOUNDS pp pp pp
0.0000000000000000e+00 3.0000000000000000e+01
0.0000000000000000e+00 3.0000000000000000e+01
-5.0000000000000000e-01 5.0000000000000000e-01
ITEM: ATOMS id type xs ys zs
1 1 0.926002 0.526795 0.5
2 1 0.485225 0.861943 0.5
3 1 0.449688 0.284998 0.5
4 1 0.135866 0.28727 0.5
5 1 0.170918 0.0777441 0.5
6 1 0.69136 0.878683 0.5
7 1 0.51523 0.836368 0.5
8 1 0.992888 0.634118 0.5
9 1 0.0763632 0.0411397 0.5
10 1 0.58988 0.934063 0.5
11 1 0.287631 0.175506 0.5
12 1 0.330798 0.502082 0.5
13 1 0.999325 0.263845 0.5
14 1 0.150399 0.381261 0.5
15 1 0.282538 0.615484 0.5
16 1 0.602022 0.073116 0.5
17 1 0.703905 0.127002 0.5
18 1 0.771245 0.664625 0.5
19 1 0.164855 0.342782 0.5
20 1 0.874875 0.457046 0.5
21 1 0.265981 0.411918 0.5
22 1 0.908576 0.914171 0.5
23 1 0.963492 0.270956 0.5
24 1 0.0980385 0.307724 0.5
25 1 0.921534 0.032424 0.5
26 1 0.185675 0.103464 0.5
27 1 0.227409 0.779492 0.5
28 1 0.112679 0.00567904 0.5
29 1 0.728284 0.855679 0.5
30 1 0.913298 0.224903 0.5
31 1 0.431619 0.644887 0.5
32 1 0.45735 0.937253 0.5
33 1 0.0604121 0.134032 0.5
34 1 0.36781 0.478938 0.5
35 1 0.812147 0.331797 0.5
36 1 0.00699632 0.818599 0.5
37 1 0.242606 0.222687 0.5
38 1 0.456319 0.234202 0.5
39 1 0.370169 0.671517 0.5
40 1 0.800089 0.448448 0.5
41 1 0.239618 0.0157916 0.5
42 1 0.0505997 0.982686 0.5
43 1 0.688765 0.270739 0.5
44 1 0.592367 0.805639 0.5
45 1 0.785479 0.750888 0.5
46 1 0.491587 0.0492963 0.5
47 1 0.124923 0.682638 0.5
48 1 0.718361 0.775162 0.5
49 1 0.984208 0.118173 0.5
50 1 0.84335 0.251732 0.5
51 1 0.944453 0.253712 0.5
52 1 0.548664 0.738968 0.5
53 1 0.405285 0.864388 0.5
54 1 0.277162 0.0107154 0.5
55 1 0.691553 0.391306 0.5
56 1 0.755795 0.803769 0.5
57 1 0.141661 0.215813 0.5
58 1 0.27437 0.121057 0.5
59 1 0.405434 0.112258 0.5
60 1 0.244228 0.9216 0.5
61 1 0.378468 0.943372 0.5
62 1 0.320858 0.266241 0.5
63 1 0.409752 0.609341 0.5
64 1 0.689268 0.159633 0.5
65 1 0.230094 0.548083 0.5
66 1 0.80913 0.666671 0.5
67 1 0.460046 0.825865 0.5
68 1 0.0705665 0.804135 0.5
69 1 0.0645115 0.072993 0.5
70 1 0.897957 0.00156548 0.5
71 1 0.998052 0.867425 0.5
72 1 0.213105 0.0639771 0.5
73 1 0.876842 0.711839 0.5
74 1 0.34633 0.829752 0.5
75 1 0.0317991 0.318664 0.5
76 1 0.776404 0.890466 0.5
77 1 0.252363 0.70864 0.5
78 1 0.512466 0.949496 0.5
79 1 0.58315 0.602629 0.5
80 1 0.594509 0.994329 0.5
81 1 0.860916 0.0555589 0.5
82 1 0.538642 0.901363 0.5
83 1 0.391223 0.743554 0.5
84 1 0.722319 0.448421 0.5
85 1 0.623524 0.376597 0.5
86 1 0.439418 0.120178 0.5
87 1 0.285598 0.451783 0.5
88 1 0.242318 0.146234 0.5
89 1 0.27115 0.900553 0.5
90 1 0.74481 0.23502 0.5
91 1 0.890751 0.34322 0.5
92 1 0.542611 0.669928 0.5
93 1 0.317714 0.781023 0.5
94 1 0.626418 0.736489 0.5
95 1 0.11792 0.0267835 0.5
96 1 0.207215 0.583852 0.5
97 1 0.380393 0.414796 0.5
98 1 0.699593 0.663171 0.5
99 1 0.959204 0.856734 0.5
100 1 0.0032775 0.444353 0.5
101 1 0.610884 0.120041 0.5
102 1 0.0180249 0.582582 0.5
103 1 0.8957 0.755468 0.5
104 1 0.430422 0.599754 0.5
105 1 0.650597 0.826015 0.5
106 1 0.663094 0.902734 0.5
107 1 0.167848 0.848246 0.5
108 1 0.671702 0.0986533 0.5
109 1 0.573844 0.73255 0.5
110 1 0.543084 0.0187741 0.5
111 1 0.0884419 0.23324 0.5
112 1 0.0826792 0.77636 0.5
113 1 0.225512 0.121303 0.5
114 1 0.367995 0.961812 0.5
115 1 0.232991 0.308756 0.5
116 1 0.615959 0.202931 0.5
117 1 0.319069 0.642962 0.5
118 1 0.31838 0.206148 0.5
119 1 0.627483 0.243716 0.5
120 1 0.805566 0.284643 0.5
121 1 0.0458653 0.260894 0.5
122 1 0.995452 0.168164 0.5
123 1 0.66966 0.671611 0.5
124 1 0.684011 0.215618 0.5
125 1 0.207228 0.992321 0.5
126 1 0.169516 0.576637 0.5
127 1 0.107789 0.948766 0.5
128 1 0.0605023 0.291337 0.5
129 1 0.264732 0.487342 0.5
130 1 0.381789 0.117232 0.5
131 1 0.784241 0.316875 0.5
132 1 0.280858 0.578395 0.5
133 1 0.380968 0.786113 0.5
134 1 0.774464 0.375897 0.5
135 1 0.76375 0.7644 0.5
136 1 0.584602 0.643895 0.5
137 1 0.172271 0.788552 0.5
138 1 0.547691 0.978023 0.5
139 1 0.17272 0.474175 0.5
140 1 0.282927 0.0319487 0.5
141 1 0.221171 0.472231 0.5
142 1 0.26471 0.828962 0.5
143 1 0.852682 0.994876 0.5
144 1 0.729365 0.922062 0.5
145 1 0.00280857 0.315749 0.5
146 1 0.405933 0.763334 0.5
147 1 0.58082 0.70122 0.5
148 2 0.524465 0.471058 0.5
ITEM: TIMESTEP
800
ITEM: NUMBER OF ATOMS
148
ITEM: BOX BOUNDS pp pp pp
0.0000000000000000e+00 3.0000000000000000e+01
0.0000000000000000e+00 3.0000000000000000e+01
-5.0000000000000000e-01 5.0000000000000000e-01
ITEM: ATOMS id type xs ys zs
1 1 0.859917 0.662079 0.5
2 1 0.425749 0.941394 0.5
3 1 0.42429 0.335057 0.5
4 1 0.2089 0.350299 0.5
5 1 0.0837927 0.289116 0.5
6 1 0.582185 0.808276 0.5
7 1 0.414276 0.724509 0.5
8 1 0.987928 0.628527 0.5
9 1 0.074567 0.180118 0.5
10 1 0.58247 0.011268 0.5
11 1 0.489115 0.212507 0.5
12 1 0.288291 0.454758 0.5
13 1 0.031063 0.150134 0.5
14 1 0.0719464 0.577699 0.5
15 1 0.209289 0.764259 0.5
16 1 0.570103 0.0544683 0.5
17 1 0.718009 0.900023 0.5
18 1 0.44625 0.664662 0.5
19 1 0.08154 0.558263 0.5
20 1 0.843212 0.528746 0.5
21 1 0.279168 0.391114 0.5
22 1 0.016952 0.879215 0.5
23 1 0.0736718 0.133555 0.5
24 1 0.242807 0.26361 0.5
25 1 0.783801 0.0014636 0.5
26 1 0.15023 0.0221593 0.5
27 1 0.219466 0.729187 0.5
28 1 0.093623 0.0232064 0.5
29 1 0.991319 0.801518 0.5
30 1 0.911996 0.0622786 0.5
31 1 0.290472 0.760153 0.5
32 1 0.50302 0.937676 0.5
33 1 0.0550192 0.0221681 0.5
34 1 0.315099 0.358166 0.5
35 1 0.953916 0.356377 0.5
36 1 0.0117474 0.618592 0.5
37 1 0.1701 0.31872 0.5
38 1 0.308281 0.12016 0.5
39 1 0.375615 0.610516 0.5
40 1 0.92325 0.36281 0.5
41 1 0.158255 0.924435 0.5
42 1 0.948445 0.906988 0.5
43 1 0.831256 0.226176 0.5
44 1 0.821953 0.815994 0.5
45 1 0.672868 0.429515 0.5
46 1 0.496038 0.249325 0.5
47 1 0.0929973 0.692342 0.5
48 1 0.589106 0.733488 0.5
49 1 0.791476 0.146558 0.5
50 1 0.727489 0.178567 0.5
51 1 0.974513 0.0560455 0.5
52 1 0.687694 0.849627 0.5
53 1 0.359499 0.870233 0.5
54 1 0.411444 -0.000338108 0.5
55 1 0.893214 0.271655 0.5
56 1 0.806762 0.852836 0.5
57 1 0.144136 0.328484 0.5
58 1 0.423594 0.294603 0.5
59 1 0.476378 0.109061 0.5
60 1 0.250433 0.0766183 0.5
61 1 0.377242 0.743149 0.5
62 1 0.515075 0.265058 0.5
63 1 0.364825 0.497238 0.5
64 1 0.66156 0.107509 0.5
65 1 0.250799 0.510483 0.5
66 1 0.657176 0.663673 0.5
67 1 0.574836 0.600219 0.5
68 1 0.0398566 0.976217 0.5
69 1 0.113182 0.09077 0.5
70 1 0.0918722 0.751688 0.5
71 1 0.00105773 0.0532335 0.5
72 1 0.145365 0.198308 0.5
73 1 0.893715 0.704378 0.5
74 1 0.337389 0.730815 0.5
75 1 0.0427273 0.619811 0.5
76 1 0.651011 0.887409 0.5
77 1 0.196925 0.810097 0.5
78 1 0.358014 0.198686 0.5
79 1 0.636879 0.550956 0.5
80 1 0.622528 0.0519189 0.5
81 1 0.84219 0.935499 0.5
82 1 0.422676 0.0363001 0.5
83 1 0.301756 0.687725 0.5
84 1 0.589604 0.142971 0.5
85 1 0.644914 0.226729 0.5
86 1 0.506345 0.0368815 0.5
87 1 0.217474 0.431023 0.5
88 1 0.251327 0.11991 0.5
89 1 0.277404 0.810424 0.5
90 1 0.728179 0.221925 0.5
91 1 0.0706591 0.229635 0.5
92 1 0.594341 0.958018 0.5
93 1 0.490136 0.873608 0.5
94 1 0.864629 0.0381885 0.5
95 1 0.20133 0.85442 0.5
96 1 0.212845 0.573337 0.5
97 1 0.405699 0.321191 0.5
98 1 0.712342 0.371514 0.5
99 1 0.97931 0.69258 0.5
100 1 0.0872189 0.671634 0.5
101 1 0.665288 0.179278 0.5
102 1 0.861883 0.506255 0.5
103 1 0.736308 0.656752 0.5
104 1 0.418567 0.679335 0.5
105 1 0.453827 0.961145 0.5
106 1 0.522515 0.837804 0.5
107 1 0.126541 0.838422 0.5
108 1 0.589145 0.0738812 0.5
109 1 0.643589 0.56954 0.5
110 1 0.520957 0.972176 0.5
111 1 0.0585482 0.282684 0.5
112 1 0.136752 0.874651 0.5
113 1 0.180098 0.244944 0.5
114 1 0.370665 0.894818 0.5
115 1 0.26406 0.343635 0.5
116 1 0.498028 0.0910847 0.5
117 1 0.138647 0.670065 0.5
118 1 0.636862 0.290983 0.5
119 1 0.558826 0.0855974 0.5
120 1 0.81333 0.47311 0.5
121 1 0.158617 0.241395 0.5
122 1 0.148332 0.142381 0.5
123 1 0.67713 0.509368 0.5
124 1 0.728975 0.249086 0.5
125 1 0.24456 0.864116 0.5
126 1 0.15235 0.51054 0.5
127 1 0.875807 0.968494 0.5
128 1 0.0599503 0.527399 0.5
129 1 0.245277 0.723564 0.5
130 1 0.379471 0.0824404 0.5
131 1 0.695754 0.536441 0.5
132 1 0.279805 0.520831 0.5
133 1 0.482279 0.776692 0.5
134 1 0.879675 0.55709 0.5
135 1 0.768527 0.690729 0.5
136 1 0.503233 0.670919 0.5
137 1 0.132837 0.782586 0.5
138 1 0.556504 0.986068 0.5
139 1 0.153777 0.440513 0.5
140 1 0.429579 0.128791 0.5
141 1 0.101177 0.420413 0.5
142 1 0.384816 0.855306 0.5
143 1 0.914174 0.990777 0.5
144 1 0.753791 0.635586 0.5
145 1 0.119597 0.379111 0.5
146 1 0.538786 0.644847 0.5
147 1 0.733 0.761429 0.5
148 2 0.524431 0.470983 0.5
ITEM: TIMESTEP
1000
ITEM: NUMBER OF ATOMS
148
ITEM: BOX BOUNDS pp pp pp
0.0000000000000000e+00 3.0000000000000000e+01
0.0000000000000000e+00 3.0000000000000000e+01
-5.0000000000000000e-01 5.0000000000000000e-01
ITEM: ATOMS id type xs ys zs
1 1 0.798405 0.806703 0.5
2 1 0.247774 0.994985 0.5
3 1 0.405844 0.323238 0.5
4 1 0.174591 0.29837 0.5
5 1 0.0347486 0.478166 0.5
6 1 0.525794 0.00979391 0.5
7 1 0.342717 0.69337 0.5
8 1 0.94351 0.566808 0.5
9 1 0.243745 0.0447845 0.5
10 1 0.757711 0.0769432 0.5
11 1 0.731768 0.370203 0.5
12 1 0.237658 0.45249 0.5
13 1 0.111854 0.0725337 0.5
14 1 0.980553 0.822007 0.5
15 1 0.0855665 0.694264 0.5
16 1 0.673744 0.0161038 0.5
17 1 0.811863 0.897598 0.5
18 1 0.276934 0.576146 0.5
19 1 0.155438 0.620091 0.5
20 1 0.689531 0.608309 0.5
21 1 0.2143 0.376492 0.5
22 1 0.0430096 0.835178 0.5
23 1 0.204618 0.0518373 0.5
24 1 0.285942 0.275142 0.5
25 1 0.699237 0.894413 0.5
26 1 0.184487 0.971805 0.5
27 1 0.9966 0.764001 0.5
28 1 0.00219798 0.0107678 0.5
29 1 0.0787152 0.795806 0.5
30 1 0.856827 0.862815 0.5
31 1 0.335563 0.794174 0.5
32 1 0.535184 0.753335 0.5
33 1 0.925329 0.413974 0.5
34 1 0.338152 0.32944 0.5
35 1 0.910667 0.464286 0.5
36 1 0.967865 0.447141 0.5
37 1 0.0243905 0.20473 0.5
38 1 0.324754 0.228202 0.5
39 1 0.375359 0.503028 0.5
40 1 0.0767759 0.362943 0.5
41 1 0.298228 0.807421 0.5
42 1 0.973153 0.697783 0.5
43 1 0.863638 0.244787 0.5
44 1 0.897481 0.87555 0.5
45 1 0.878496 0.127139 0.5
46 1 0.433007 0.321143 0.5
47 1 0.924675 0.751638 0.5
48 1 0.467626 0.660836 0.5
49 1 0.667718 0.185792 0.5
50 1 0.508415 0.134766 0.5
51 1 0.989534 0.84893 0.5
52 1 0.614475 0.84799 0.5
53 1 0.434763 0.836072 0.5
54 1 0.383242 0.92476 0.5
55 1 0.094868 0.15205 0.5
56 1 0.876589 0.807887 0.5
57 1 0.152938 0.335701 0.5
58 1 0.599053 0.295684 0.5
59 1 0.492453 0.306502 0.5
60 1 0.233897 0.0174284 0.5
61 1 0.235607 0.60624 0.5
62 1 0.466492 0.095967 0.5
63 1 0.330267 0.524639 0.5
64 1 0.612396 0.163438 0.5
65 1 0.235279 0.476203 0.5
66 1 0.506984 0.733771 0.5
67 1 0.647844 0.76204 0.5
68 1 0.698365 0.848865 0.5
69 1 0.211463 0.986741 0.5
70 1 0.019427 0.552033 0.5
71 1 0.997389 0.188252 0.5
72 1 0.0258674 0.181723 0.5
73 1 0.76582 0.425074 0.5
74 1 0.338362 0.727852 0.5
75 1 0.967287 0.846095 0.5
76 1 0.538103 0.905251 0.5
77 1 0.499672 0.0554808 0.5
78 1 0.374523 0.443601 0.5
79 1 0.750733 0.55011 0.5
80 1 0.780348 0.0780702 0.5
81 1 0.84689 0.970814 0.5
82 1 0.375742 0.142481 0.5
83 1 0.366329 0.537916 0.5
84 1 0.542252 0.186519 0.5
85 1 0.905171 0.501466 0.5
86 1 0.359033 0.818904 0.5
87 1 0.15301 0.415219 0.5
88 1 0.450969 0.294135 0.5
89 1 0.139546 0.757979 0.5
90 1 0.960555 0.256859 0.5
91 1 0.173148 0.385993 0.5
92 1 0.732167 0.0717259 0.5
93 1 0.702374 0.965403 0.5
94 1 0.0303009 0.394618 0.5
95 1 0.278057 0.971137 0.5
96 1 0.102512 0.548903 0.5
97 1 0.32735 0.28272 0.5
98 1 0.800124 0.181402 0.5
99 1 0.802567 0.569804 0.5
100 1 0.206476 0.611344 0.5
101 1 0.637073 0.199786 0.5
102 1 0.8116 0.322399 0.5
103 1 0.70486 0.733436 0.5
104 1 0.449008 0.694738 0.5
105 1 0.416812 0.141237 0.5
106 1 0.393557 0.790093 0.5
107 1 0.180427 0.730552 0.5
108 1 0.377699 0.945837 0.5
109 1 0.886213 0.677884 0.5
110 1 0.357409 0.840368 0.5
111 1 0.137763 0.244703 0.5
112 1 0.160682 0.878748 0.5
113 1 0.222135 0.262076 0.5
114 1 0.38535 0.8117 0.5
115 1 0.123061 0.421316 0.5
116 1 0.530768 0.0825652 0.5
117 1 0.137413 0.727815 0.5
118 1 0.752795 0.347429 0.5
119 1 0.478017 0.965993 0.5
120 1 0.79813 0.65925 0.5
121 1 0.0478457 0.26419 0.5
122 1 0.222808 0.217393 0.5
123 1 0.720107 0.438862 0.5
124 1 0.946389 0.354528 0.5
125 1 0.309833 0.856243 0.5
126 1 0.108797 0.490837 0.5
127 1 0.638129 0.987 0.5
128 1 0.0420518 0.681466 0.5
129 1 0.272156 0.693717 0.5
130 1 0.304066 0.17742 0.5
131 1 0.968145 0.506661 0.5
132 1 0.267187 0.612139 0.5
133 1 0.479279 0.75548 0.5
134 1 0.108 0.443154 0.5
135 1 0.94501 0.697117 0.5
136 1 0.460044 0.793357 0.5
137 1 0.261796 0.722687 0.5
138 1 0.552725 0.849126 0.5
139 1 0.0806405 0.461759 0.5
140 1 0.428759 0.17565 0.5
141 1 0.96808 0.534559 0.5
142 1 0.495645 0.86707 0.5
143 1 0.130234 0.804987 0.5
144 1 0.711907 0.692022 0.5
145 1 0.214762 0.465723 0.5
146 1 0.637214 0.833265 0.5
147 1 0.90101 0.753158 0.5
148 2 0.524508 0.471047 0.5
ITEM: TIMESTEP
1200
ITEM: NUMBER OF ATOMS
148
ITEM: BOX BOUNDS pp pp pp
0.0000000000000000e+00 3.0000000000000000e+01
0.0000000000000000e+00 3.0000000000000000e+01
-5.0000000000000000e-01 5.0000000000000000e-01
ITEM: ATOMS id type xs ys zs
1 1 0.738552 0.957217 0.5
2 1 0.327805 0.882483 0.5
3 1 0.340845 0.291705 0.5
4 1 0.154213 0.287255 0.5
5 1 0.704652 0.441903 0.5
6 1 0.560672 0.263568 0.5
7 1 0.365057 0.497917 0.5
8 1 0.913708 0.501099 0.5
9 1 0.479465 0.168375 0.5
10 1 0.833254 0.0517999 0.5
11 1 0.702814 0.278081 0.5
12 1 0.373248 0.440693 0.5
13 1 0.163818 0.0633119 0.5
14 1 0.0141262 0.854205 0.5
15 1 0.196795 0.466048 0.5
16 1 0.809362 0.0478929 0.5
17 1 0.802276 0.932497 0.5
18 1 0.406677 0.686411 0.5
19 1 0.221653 0.696418 0.5
20 1 0.50744 0.717171 0.5
21 1 0.238707 0.329502 0.5
22 1 0.925054 0.796252 0.5
23 1 0.244433 0.954148 0.5
24 1 0.306054 0.48238 0.5
25 1 0.713724 0.133756 0.5
26 1 0.105946 0.880037 0.5
27 1 0.867377 0.80536 0.5
28 1 0.910748 0.998403 0.5
29 1 0.200607 0.840907 0.5
30 1 0.741098 0.87626 0.5
31 1 0.184652 0.625583 0.5
32 1 0.580087 0.688491 0.5
33 1 0.772519 0.607495 0.5
34 1 0.340538 0.39583 0.5
35 1 0.668864 0.536455 0.5
36 1 0.896298 0.395878 0.5
37 1 0.224321 0.0609663 0.5
38 1 0.237686 0.223634 0.5
39 1 0.307113 0.366917 0.5
40 1 0.10777 0.284096 0.5
41 1 0.410187 0.826299 0.5
42 1 0.866421 0.721822 0.5
43 1 0.639566 0.275171 0.5
44 1 0.740749 0.0221731 0.5
45 1 0.012596 0.132409 0.5
46 1 0.373312 0.361496 0.5
47 1 0.949615 0.691212 0.5
48 1 0.470622 0.671328 0.5
49 1 0.682675 0.288631 0.5
50 1 0.399242 0.03811 0.5
51 1 0.0770364 0.143595 0.5
52 1 0.658779 0.776691 0.5
53 1 0.380701 0.771996 0.5
54 1 0.445122 0.932375 0.5
55 1 0.277274 0.103539 0.5
56 1 0.791003 0.808779 0.5
57 1 0.319437 0.253604 0.5
58 1 0.775716 0.249959 0.5
59 1 0.765535 0.178702 0.5
60 1 0.337867 0.0349619 0.5
61 1 0.235759 0.799837 0.5
62 1 0.301934 0.935873 0.5
63 1 0.320542 0.528867 0.5
64 1 0.465635 0.228586 0.5
65 1 0.280995 0.576215 0.5
66 1 0.597727 0.656165 0.5
67 1 0.378963 0.614737 0.5
68 1 0.689266 0.753455 0.5
69 1 0.216358 0.808658 0.5
70 1 0.149122 0.624438 0.5
71 1 0.142018 0.198889 0.5
72 1 0.173667 0.877244 0.5
73 1 0.542092 0.276796 0.5
74 1 0.353965 0.780714 0.5
75 1 0.933854 0.821685 0.5
76 1 0.483099 0.138568 0.5
77 1 0.410986 0.335083 0.5
78 1 0.200999 0.262988 0.5
79 1 0.745088 0.628893 0.5
80 1 0.909023 0.841351 0.5
81 1 0.103593 0.0823263 0.5
82 1 0.356495 0.121181 0.5
83 1 0.366482 0.525537 0.5
84 1 0.514599 0.284288 0.5
85 1 0.00303428 0.521873 0.5
86 1 0.323124 0.567454 0.5
87 1 0.210566 0.436727 0.5
88 1 0.554135 0.142209 0.5
89 1 0.172204 0.770357 0.5
90 1 0.993329 0.459222 0.5
91 1 0.0977339 0.360306 0.5
92 1 0.677145 0.203876 0.5
93 1 0.938809 0.0487199 0.5
94 1 0.114489 0.522118 0.5
95 1 0.320056 0.791634 0.5
96 1 0.170546 0.464109 0.5
97 1 0.211977 0.55865 0.5
98 1 0.867634 0.0216987 0.5
99 1 0.623407 0.568647 0.5
100 1 0.172766 0.654103 0.5
101 1 0.631672 0.127209 0.5
102 1 0.893373 0.266409 0.5
103 1 0.692675 0.81851 0.5
104 1 0.386759 0.558478 0.5
105 1 0.378406 0.235973 0.5
106 1 0.327148 0.626482 0.5
107 1 0.275255 0.858978 0.5
108 1 0.509887 0.00971806 0.5
109 1 0.964936 0.594066 0.5
110 1 0.298635 1.00077 0.5
111 1 0.19738 6.42478e-05 0.5
112 1 0.127441 0.866943 0.5
113 1 0.121573 0.224447 0.5
114 1 0.403837 0.897708 0.5
115 1 0.108311 0.328342 0.5
116 1 0.886393 0.189018 0.5
117 1 0.100648 0.840318 0.5
118 1 0.627974 0.341436 0.5
119 1 0.466382 0.0879551 0.5
120 1 0.814291 0.726913 0.5
121 1 0.052663 0.286236 0.5
122 1 0.138438 0.0807856 0.5
123 1 0.684456 0.436462 0.5
124 1 0.0199494 0.326328 0.5
125 1 0.278992 0.929042 0.5
126 1 0.180925 0.557973 0.5
127 1 0.414741 0.984457 0.5
128 1 0.976435 0.564338 0.5
129 1 0.350011 0.584098 0.5
130 1 0.200876 0.192393 0.5
131 1 0.621463 0.732521 0.5
132 1 0.24292 0.72278 0.5
133 1 0.439701 0.833288 0.5
134 1 0.154473 0.349046 0.5
135 1 0.08037 0.716845 0.5
136 1 0.440152 0.860359 0.5
137 1 0.307438 0.698714 0.5
138 1 0.535035 0.798001 0.5
139 1 0.13167 0.669647 0.5
140 1 0.43949 0.350742 0.5
141 1 0.919744 0.568877 0.5
142 1 0.579867 0.00874305 0.5
143 1 0.0682242 0.782218 0.5
144 1 0.602554 0.726996 0.5
145 1 0.283744 0.371288 0.5
146 1 0.759645 0.989341 0.5
147 1 0.628266 0.602535 0.5
148 2 0.524478 0.471028 0.5
ITEM: TIMESTEP
1400
ITEM: NUMBER OF ATOMS
148
ITEM: BOX BOUNDS pp pp pp