ITEM: TIMESTEP
0
ITEM: NUMBER OF ATOMS
300
ITEM: BOX BOUNDS pp pp pp
-4.5275010000000000e+00 3.5472498999999999e+01
-4.3425000000000002e+00 3.5657499999999999e+01
-4.2059990000000003e+00 3.5794001000000002e+01
ITEM: ATOMS id type xs ys zs
123 1 0.799591 0.33179 0.138925
240 1 0.322189 0.428869 0.135217
21 1 0.497058 0.405586 0.158054
238 2 0.344662 0.434337 0.129076
239 1 0.358243 0.422292 0.144669
19 2 0.510238 0.385987 0.1619
121 2 0.809012 0.353788 0.138925
122 1 0.832666 0.350184 0.138525
88 2 0.129413 0.589687 0.124801
89 1 0.124387 0.59846 0.14649
90 1 0.150725 0.579118 0.127395
250 2 0.492312 0.646438 0.16085
251 1 0.489814 0.661356 0.142306
97 2 0.696863 0.565186 0.163675
98 1 0.701535 0.547471 0.148281
99 1 0.694762 0.584671 0.149942
28 2 0.447187 0.758737 0.157577
241 2 0.647888 0.796862 0.135927
242 1 0.663491 0.814117 0.141537
243 1 0.641257 0.787683 0.157008
254 1 0.806074 0.822967 0.160234
76 2 0.385213 0.148012 0.311475
77 1 0.386464 0.124979 0.317845
78 1 0.407833 0.154133 0.306627
184 2 0.863587 0.162137 0.271399
185 1 0.857739 0.138946 0.272181
246 1 0.139459 0.324363 0.229575
139 2 0.295963 0.213738 0.204475
140 1 0.301463 0.19401 0.216852
141 1 0.279107 0.206635 0.189045
150 1 0.240786 0.327197 0.209968
13 2 0.736988 0.224888 0.2882
14 1 0.736632 0.244975 0.3012
15 1 0.722035 0.210092 0.299607
186 1 0.866763 0.166742 0.248132
244 2 0.123938 0.341462 0.23585
245 1 0.137665 0.360145 0.241777
142 2 0.298687 0.445813 0.241826
143 1 0.293446 0.453157 0.26399
144 1 0.278591 0.44951 0.229371
148 2 0.227537 0.338812 0.193775
149 1 0.239717 0.358936 0.189379
20 1 0.49806 0.373719 0.178448
235 2 0.370562 0.368687 0.319199
236 1 0.359524 0.361368 0.299268
237 1 0.360614 0.389887 0.324126
256 2 0.269688 0.618211 0.2296
257 1 0.259458 0.60147 0.243301
258 1 0.287084 0.606623 0.21795
4 2 0.476037 0.559689 0.231
5 1 0.464892 0.576819 0.24345
6 1 0.484967 0.571002 0.211897
136 2 0.336387 0.640637 0.253875
137 1 0.351973 0.65867 0.251749
138 1 0.349792 0.620887 0.252174
252 1 0.477667 0.655209 0.177621
37 2 0.621463 0.657113 0.215375
38 1 0.60921 0.647984 0.233792
39 1 0.613259 0.645285 0.196258
199 2 0.280313 0.738337 0.196175
200 1 0.29333 0.718269 0.196875
201 1 0.257612 0.730784 0.196675
29 1 0.453865 0.742367 0.173704
30 1 0.432919 0.773636 0.169706
115 2 0.435788 0.689588 0.1899
116 1 0.434055 0.674885 0.208701
117 1 0.413531 0.690858 0.181204
109 2 0.578063 0.720112 0.2486
110 1 0.555411 0.712413 0.249125
111 1 0.591207 0.700247 0.250899
259 2 0.789063 0.768663 0.277525
260 1 0.771834 0.760187 0.291807
261 1 0.785089 0.758111 0.256417
292 2 0.733413 0.701962 0.304849
293 1 0.726761 0.685709 0.321104
294 1 0.744856 0.68932 0.288059
208 2 0.568563 0.849612 0.249899
209 1 0.552858 0.867296 0.246257
210 1 0.573709 0.850869 0.273235
223 2 0.519287 0.849814 0.190376
224 1 0.534924 0.851128 0.172309
225 1 0.517756 0.872224 0.198628
253 2 0.789688 0.834112 0.173649
255 1 0.798561 0.856093 0.176928
204 1 0.415006 0.163362 0.392233
160 2 0.127162 0.223262 0.42705
161 1 0.145748 0.237775 0.431122
162 1 0.127407 0.207906 0.445402
220 2 0.117688 0.265637 0.338825
221 1 0.118835 0.251914 0.358396
222 1 0.136889 0.27984 0.340323
10 2 0.280289 0.173638 0.3408
11 1 0.269753 0.19502 0.338699
12 1 0.303623 0.178604 0.342674
25 2 0.232138 0.240487 0.395876
26 1 0.22596 0.252319 0.376013
27 1 0.212861 0.241962 0.409978
79 2 0.398188 0.259336 0.42885
80 1 0.397254 0.282698 0.433948
81 1 0.378109 0.255071 0.41655
202 2 0.402363 0.171088 0.411024
203 1 0.406785 0.194586 0.411978
124 2 0.584537 0.282588 0.4745
125 1 0.608396 0.280806 0.47495
126 1 0.57682 0.259941 0.47495
286 2 0.701337 0.235463 0.357125
287 1 0.699287 0.212109 0.361926
288 1 0.678792 0.243061 0.354551
69 1 0.127561 0.499188 0.370536
96 1 0.160572 0.338512 0.43786
94 2 0.174786 0.353713 0.449674
95 1 0.170195 0.37506 0.439884
22 2 0.563462 0.426163 0.4693
23 1 0.585983 0.423191 0.461775
24 1 0.557768 0.448404 0.462551
60 1 0.156202 0.533569 0.499108
67 2 0.134237 0.514412 0.387749
68 1 0.14702 0.531125 0.376351
86 1 0.354781 0.609832 0.499497
171 1 0.488867 0.593805 0.473101
169 2 0.512438 0.596888 0.47035
170 1 0.521832 0.575256 0.474402
166 2 0.777763 0.61854 0.483626
167 1 0.766103 0.639345 0.481668
168 1 0.798486 0.624243 0.494146
155 1 0.867739 0.655819 0.436974
112 2 0.140938 0.725839 0.432525
113 1 0.122256 0.713626 0.441155
114 1 0.15859 0.709728 0.431302
265 2 0.300912 0.788313 0.463399
266 1 0.304041 0.810185 0.454208
267 1 0.288767 0.776411 0.446561
268 2 0.306438 0.824012 0.370375
269 1 0.325761 0.827193 0.356622
270 1 0.310158 0.802986 0.381179
154 2 0.870963 0.678237 0.42925
156 1 0.88691 0.687585 0.444448
213 1 0.221947 0.148504 0.614508
73 2 0.255487 0.240538 0.58115
74 1 0.246465 0.21868 0.577478
75 1 0.241268 0.255091 0.568553
211 2 0.222036 0.172387 0.613024
212 1 0.204273 0.177522 0.597833
272 1 0.487245 0.183695 0.574838
271 2 0.507612 0.187611 0.562902
273 1 0.523956 0.1745 0.574461
295 2 0.632887 0.258889 0.590926
296 1 0.652311 0.272826 0.58987
297 1 0.616692 0.272046 0.602641
181 2 0.705486 0.279339 0.5484
182 1 0.727049 0.276578 0.538396
183 1 0.698892 0.2572 0.554649
151 2 0.306412 0.357038 0.52475
152 1 0.318164 0.336878 0.519447
153 1 0.283417 0.351835 0.52065
31 2 0.395313 0.400536 0.53455
32 1 0.416809 0.390473 0.531499
33 1 0.380916 0.382305 0.540297
46 2 0.390987 0.461637 0.524625
47 1 0.389237 0.485442 0.522925
48 1 0.37344 0.455389 0.539648
70 2 0.499037 0.473112 0.562525
71 1 0.506939 0.492537 0.574053
72 1 0.505512 0.454795 0.576497
118 2 0.632262 0.429863 0.507425
119 1 0.656078 0.432165 0.507025
120 1 0.624048 0.45232 0.506501
34 2 0.746336 0.416464 0.657299
36 1 0.747951 0.392609 0.656309
64 2 0.692788 0.483788 0.595
65 1 0.697015 0.494212 0.573879
66 1 0.713381 0.485963 0.606993
247 2 0.768786 0.483538 0.567425
249 1 0.788144 0.494766 0.558947
83 1 0.153126 0.519245 0.660602
58 2 0.178112 0.543087 0.500524
59 1 0.182008 0.545711 0.523988
85 2 0.332811 0.618812 0.50255
87 1 0.319443 0.599973 0.508797
157 2 0.355562 0.551113 0.581275
158 1 0.346014 0.529575 0.585472
159 1 0.34229 0.566196 0.594275
196 2 0.628637 0.660387 0.568125
197 1 0.624687 0.66299 0.591582
198 1 0.623314 0.63749 0.563648
106 2 0.716886 0.657237 0.501575
107 1 0.694619 0.665875 0.500101
108 1 0.714202 0.633489 0.500351
248 1 0.753323 0.501125 0.572347
217 2 0.631263 0.816312 0.519925
219 1 0.649809 0.801194 0.520301
127 2 0.875163 0.800887 0.55665
128 1 0.853487 0.807623 0.549073
129 1 0.887701 0.821236 0.557822
218 1 0.639316 0.835964 0.530952
100 2 0.135761 0.128839 0.81925
101 1 0.122026 0.109307 0.820825
102 1 0.158141 0.120395 0.818551
1 2 0.476739 0.140363 0.781174
2 1 0.483562 0.129558 0.801406
3 1 0.495722 0.153379 0.774627
229 2 0.582413 0.157587 0.772874
231 1 0.596085 0.140641 0.782802
133 2 0.272388 0.247762 0.811
134 1 0.288437 0.264939 0.806525
135 1 0.284679 0.227348 0.808802
55 2 0.484237 0.261011 0.7978
56 1 0.497021 0.278925 0.788403
57 1 0.484192 0.265371 0.821329
226 2 0.345539 0.206514 0.785149
227 1 0.368309 0.199577 0.787605
228 1 0.346924 0.228248 0.775232
172 2 0.610487 0.224563 0.7365
173 1 0.628357 0.240198 0.733522
174 1 0.617745 0.204889 0.724972
190 2 0.648538 0.300787 0.823275
191 1 0.650513 0.324285 0.82735
230 1 0.572735 0.169141 0.791461
192 1 0.671107 0.292841 0.822925
84 1 0.153009 0.482892 0.67113
206 1 0.154969 0.488019 0.730797
178 2 0.323813 0.381937 0.7672
179 1 0.300175 0.383214 0.770702
180 1 0.328186 0.358598 0.764226
207 1 0.167131 0.496022 0.765732
289 2 0.246338 0.452238 0.69515
290 1 0.227536 0.450989 0.6804
291 1 0.243536 0.473009 0.706697
298 2 0.341337 0.343163 0.687075
299 1 0.335242 0.365774 0.691999
300 1 0.352814 0.335638 0.706679
35 1 0.76507 0.423199 0.670579
40 2 0.821088 0.405137 0.75685
41 1 0.823158 0.40614 0.733031
42 1 0.802757 0.419668 0.761897
232 2 0.700511 0.398038 0.819875
234 1 0.686629 0.41131 0.805599
205 2 0.151461 0.503063 0.749073
82 2 0.167185 0.502112 0.669625
91 2 0.187713 0.636063 0.8304
93 1 0.189859 0.612432 0.8273
8 1 0.497666 0.649191 0.804205
262 2 0.391637 0.643237 0.776675
263 1 0.377468 0.645514 0.795825
264 1 0.377792 0.632813 0.760173
7 2 0.506812 0.635287 0.8214
49 2 0.578564 0.542314 0.76545
50 1 0.55523 0.53985 0.760747
51 1 0.587203 0.520007 0.764798
280 2 0.663613 0.640663 0.701675
281 1 0.644329 0.642285 0.687599
163 2 0.751413 0.647812 0.76885
165 1 0.729435 0.645388 0.759699
282 1 0.679991 0.654486 0.691029
188 1 0.154442 0.802935 0.826082
187 2 0.167587 0.804813 0.806174
189 1 0.189699 0.798708 0.812986
214 2 0.210938 0.717437 0.68525
215 1 0.194205 0.730366 0.696454
216 1 0.230114 0.731737 0.684574
52 2 0.497136 0.729587 0.685675
53 1 0.49632 0.706336 0.680074
54 1 0.474257 0.735765 0.688999
103 2 0.354861 0.764838 0.7314
104 1 0.371873 0.773016 0.716691
105 1 0.339095 0.782777 0.7329
175 2 0.462138 0.704987 0.737325
176 1 0.479954 0.689651 0.741801
177 1 0.467417 0.724305 0.750424
164 1 0.758215 0.669821 0.762372
43 2 0.162286 0.883187 0.76815
45 1 0.143074 0.86905 0.770074
44 1 0.180246 0.868235 0.762998
61 2 0.518337 0.866512 0.70525
62 1 0.503143 0.86124 0.722969
63 1 0.515014 0.849142 0.689129
16 2 0.396313 0.219413 0.869974
17 1 0.374737 0.222612 0.86013
18 1 0.411562 0.220786 0.851583
274 2 0.400538 0.295288 0.8752
275 1 0.392885 0.31793 0.876398
276 1 0.423905 0.296582 0.880198
277 2 0.882311 0.187164 0.866424
278 1 0.869834 0.202945 0.853465
279 1 0.86587 0.171886 0.874727
283 2 0.156088 0.432962 0.844325
284 1 0.134962 0.427593 0.834451
285 1 0.153883 0.455785 0.851172
130 2 0.334313 0.477089 0.86465
132 1 0.357667 0.471881 0.864975
233 1 0.685347 0.388281 0.835607
92 1 0.164458 0.639434 0.834925
131 1 0.333507 0.500992 0.863826
9 1 0.516589 0.650623 0.836951
145 2 0.584513 0.66391 0.869226
193 2 0.71566 0.607488 0.841576
194 1 0.695681 0.607093 0.854742
195 1 0.71828 0.630442 0.835337
146 1 0.600392 0.6783 0.879876
147 1 0.572529 0.678233 0.854262
ITEM: TIMESTEP
1000
ITEM: NUMBER OF ATOMS
300
ITEM: BOX BOUNDS pp pp pp
-4.5277679172870222e+00 3.5472765917286502e+01
-4.3427669172870225e+00 3.5657766917286501e+01
-4.2062659172870198e+00 3.5794267917286497e+01
ITEM: ATOMS id type xs ys zs
123 1 0.799675 0.33199 0.138422
240 1 0.32273 0.427455 0.134909
21 1 0.496944 0.405344 0.157458
238 2 0.344886 0.434424 0.12915
239 1 0.359037 0.422704 0.14448
19 2 0.51046 0.386059 0.161706
121 2 0.809253 0.353915 0.138856
122 1 0.832881 0.350149 0.138462
88 2 0.129531 0.589656 0.124682
89 1 0.125061 0.599269 0.146135
90 1 0.151153 0.579662 0.126974
250 2 0.492294 0.646313 0.160641
251 1 0.489761 0.661837 0.142607
97 2 0.696831 0.565367 0.163565
98 1 0.700798 0.547803 0.147805
99 1 0.693804 0.584926 0.150114
28 2 0.447 0.758982 0.15781
241 2 0.64776 0.796846 0.135909
242 1 0.662468 0.814836 0.141625
243 1 0.641786 0.787074 0.15692
254 1 0.806255 0.823089 0.16
76 2 0.385226 0.148202 0.311249
77 1 0.386028 0.125253 0.317983
78 1 0.40802 0.153935 0.306753
184 2 0.863414 0.16208 0.27138
185 1 0.85722 0.138991 0.272464
246 1 0.139158 0.323896 0.230537
139 2 0.296066 0.213626 0.204721
140 1 0.301312 0.193843 0.217121
141 1 0.279611 0.206569 0.188845
150 1 0.24034 0.326605 0.210328
13 2 0.736789 0.224901 0.288059
14 1 0.735833 0.245021 0.300978
15 1 0.722173 0.209758 0.299446
186 1 0.867497 0.166112 0.248149
244 2 0.12402 0.341661 0.235817
245 1 0.138158 0.359947 0.242014
142 2 0.298733 0.445781 0.241859
143 1 0.293783 0.453387 0.264001
144 1 0.27849 0.449376 0.229615
148 2 0.22768 0.338606 0.193947
149 1 0.240273 0.358585 0.190088
20 1 0.498509 0.373945 0.17853
235 2 0.370484 0.368433 0.319468
236 1 0.359291 0.360757 0.29976
237 1 0.359986 0.38932 0.32458
256 2 0.269446 0.618203 0.229539
257 1 0.25866 0.601356 0.242672
258 1 0.2865 0.606457 0.217547
4 2 0.476126 0.559681 0.230911
5 1 0.46562 0.5767 0.24405
6 1 0.48438 0.571219 0.21164
136 2 0.336647 0.640872 0.25364
137 1 0.352776 0.658483 0.252109
138 1 0.34947 0.620786 0.251458
252 1 0.479413 0.655699 0.178491
37 2 0.621296 0.657103 0.215185
38 1 0.610554 0.646131 0.233539
39 1 0.613086 0.645763 0.195778
199 2 0.280123 0.738064 0.196367
200 1 0.293681 0.718402 0.197854
201 1 0.257636 0.729889 0.196746
29 1 0.453531 0.742568 0.173952
30 1 0.431968 0.77337 0.169628
115 2 0.435679 0.689547 0.189766
116 1 0.432577 0.676254 0.209421
117 1 0.413785 0.691456 0.180298
109 2 0.577895 0.720111 0.248623
110 1 0.555055 0.713009 0.249349
111 1 0.59053 0.699958 0.251243
259 2 0.78904 0.768825 0.277748
260 1 0.771978 0.760504 0.292318
261 1 0.785198 0.757583 0.256976
292 2 0.733283 0.70182 0.304621
293 1 0.72783 0.685383 0.321134
294 1 0.744614 0.689567 0.287471
208 2 0.568545 0.849479 0.25006
209 1 0.553619 0.867663 0.24568
210 1 0.573118 0.850984 0.273501
223 2 0.519125 0.85001 0.190557
224 1 0.534533 0.850986 0.172274
225 1 0.516441 0.872793 0.197364
253 2 0.7898 0.833914 0.173589
255 1 0.799029 0.855523 0.178116
204 1 0.414779 0.163019 0.392081
160 2 0.127259 0.223357 0.426869
161 1 0.146076 0.237715 0.430391
162 1 0.127639 0.208299 0.445464
220 2 0.117556 0.265613 0.338963
221 1 0.119452 0.251737 0.358367
222 1 0.137044 0.279485 0.33958
10 2 0.28044 0.173885 0.340717
11 1 0.269625 0.19521 0.339756
12 1 0.303667 0.179047 0.343258
25 2 0.23233 0.240682 0.395858
26 1 0.225812 0.251886 0.375743
27 1 0.212962 0.241759 0.409871
79 2 0.398261 0.259451 0.428924
80 1 0.396861 0.282644 0.434646
81 1 0.378122 0.255042 0.416775
202 2 0.402574 0.17086 0.411113
203 1 0.406603 0.194444 0.411523
124 2 0.584795 0.282385 0.474735
125 1 0.608589 0.280095 0.475839
126 1 0.576541 0.259964 0.476081
286 2 0.701468 0.235195 0.357266
287 1 0.699602 0.211834 0.362108
288 1 0.67885 0.242681 0.35502
69 1 0.127256 0.499442 0.370815
96 1 0.16105 0.338288 0.438412
94 2 0.175075 0.354005 0.449766
95 1 0.169884 0.375069 0.439666
22 2 0.563372 0.426194 0.469427
23 1 0.585991 0.423253 0.462192
24 1 0.557923 0.448625 0.463119
60 1 0.156103 0.533779 0.499065
67 2 0.13435 0.514643 0.387881
68 1 0.147029 0.531257 0.376226
86 1 0.35518 0.610615 0.500289
171 1 0.488684 0.594006 0.473919
169 2 0.512175 0.596636 0.470195
170 1 0.52145 0.575092 0.474934
166 2 0.777648 0.61876 0.483944
167 1 0.768498 0.640393 0.479372
168 1 0.798625 0.623238 0.494551
155 1 0.867471 0.656029 0.436568
112 2 0.140784 0.7259 0.432604
113 1 0.121898 0.713901 0.441089
114 1 0.158279 0.709605 0.431582
265 2 0.300837 0.788325 0.463403
266 1 0.304847 0.809733 0.453491
267 1 0.288395 0.776297 0.446876
268 2 0.306323 0.824038 0.370446
269 1 0.326055 0.826407 0.357117
270 1 0.309147 0.803097 0.381676
154 2 0.871134 0.678458 0.429073
156 1 0.887045 0.687427 0.444533
213 1 0.223176 0.148633 0.614027
73 2 0.25541 0.240793 0.581137
74 1 0.247263 0.218547 0.577769
75 1 0.240641 0.254595 0.568332
211 2 0.221813 0.172498 0.612912
212 1 0.204162 0.176778 0.597332
272 1 0.487382 0.182872 0.574357
271 2 0.507964 0.187373 0.56301
273 1 0.524256 0.174353 0.574745
295 2 0.633054 0.258774 0.591215
296 1 0.651842 0.273568 0.590333
297 1 0.616248 0.271113 0.602961
181 2 0.705297 0.279309 0.548556
182 1 0.726377 0.277517 0.537373
183 1 0.699196 0.256708 0.553515
151 2 0.306497 0.35682 0.52481
152 1 0.318132 0.336654 0.519279
153 1 0.283456 0.351743 0.52081
31 2 0.395129 0.400689 0.53449
32 1 0.416996 0.391247 0.532179
33 1 0.381077 0.382057 0.539779
46 2 0.391038 0.46181 0.524635
47 1 0.388396 0.485478 0.522298
48 1 0.373087 0.455157 0.538991
70 2 0.499248 0.472922 0.562655
71 1 0.506567 0.49226 0.574702
72 1 0.505842 0.454456 0.576373
118 2 0.632239 0.429925 0.507454
119 1 0.656046 0.432032 0.506258
120 1 0.624184 0.452449 0.506832
34 2 0.74613 0.416565 0.6573
36 1 0.747692 0.392692 0.656785
64 2 0.692241 0.483455 0.594953
65 1 0.696782 0.494612 0.574276
66 1 0.712339 0.486009 0.607688
247 2 0.768946 0.48357 0.567161
249 1 0.789794 0.492369 0.559379
83 1 0.153824 0.519348 0.660044
58 2 0.17814 0.542989 0.500538
59 1 0.182019 0.545542 0.524012
85 2 0.332876 0.619002 0.50248
87 1 0.319815 0.599843 0.508394
157 2 0.355704 0.551103 0.581036
158 1 0.345804 0.529664 0.584911
159 1 0.3416 0.56644 0.592804
196 2 0.628696 0.660346 0.567862
197 1 0.625152 0.662861 0.591394
198 1 0.624041 0.637278 0.563525
106 2 0.716527 0.657081 0.501374
107 1 0.694942 0.667361 0.500358
108 1 0.712012 0.633587 0.50087
248 1 0.755482 0.502894 0.571393
217 2 0.631309 0.816484 0.519776
219 1 0.649554 0.801006 0.520228
127 2 0.875098 0.800671 0.556819
128 1 0.853896 0.807643 0.548187
129 1 0.88831 0.82062 0.557113
218 1 0.639574 0.835835 0.531171
100 2 0.135743 0.129054 0.818988
101 1 0.12176 0.109756 0.821159
102 1 0.158031 0.120344 0.81898
1 2 0.476675 0.140223 0.781477
2 1 0.483999 0.129116 0.801368
3 1 0.495735 0.15275 0.774236
229 2 0.582535 0.15734 0.773116
231 1 0.597119 0.141571 0.783665
133 2 0.272333 0.247975 0.810921
134 1 0.288068 0.265334 0.806056
135 1 0.285072 0.227766 0.809528
55 2 0.484385 0.260889 0.797727
56 1 0.497275 0.27892 0.788708
57 1 0.483143 0.265541 0.821168
226 2 0.34536 0.206449 0.784911
227 1 0.368053 0.19931 0.787492
228 1 0.347008 0.228439 0.775617
172 2 0.61062 0.224308 0.736431
173 1 0.628435 0.239748 0.732322
174 1 0.617181 0.204378 0.724926
190 2 0.648674 0.300536 0.823109
191 1 0.650525 0.323993 0.827468
230 1 0.572246 0.169067 0.791262
192 1 0.671254 0.292614 0.823216
84 1 0.153083 0.482657 0.669297
206 1 0.15469 0.488589 0.730631
178 2 0.323997 0.381719 0.767254
179 1 0.300303 0.38348 0.770112
180 1 0.327887 0.358385 0.763648
207 1 0.167263 0.495379 0.765676
289 2 0.246533 0.452147 0.695217
290 1 0.227535 0.450459 0.680766
291 1 0.243166 0.472589 0.707192
298 2 0.341239 0.343184 0.687281
299 1 0.335388 0.366025 0.691365
300 1 0.352815 0.336325 0.707069
35 1 0.76458 0.423494 0.670872
40 2 0.821149 0.405195 0.756932
41 1 0.822725 0.406909 0.733116
42 1 0.803125 0.419794 0.762818
232 2 0.700272 0.397832 0.819698
234 1 0.686547 0.411188 0.80535
205 2 0.151649 0.503216 0.749323
82 2 0.167135 0.50202 0.6698
91 2 0.18764 0.636342 0.83033
93 1 0.189927 0.612787 0.826783
8 1 0.497826 0.649041 0.803959
262 2 0.391563 0.643249 0.776865
263 1 0.378098 0.645805 0.796481
264 1 0.377006 0.63297 0.760894
7 2 0.506622 0.635023 0.821243
49 2 0.578478 0.542277 0.765203
50 1 0.555278 0.538617 0.76062
51 1 0.58802 0.520339 0.765745
280 2 0.663773 0.640877 0.701663
281 1 0.644789 0.642896 0.687235
163 2 0.751635 0.647923 0.768787
165 1 0.729669 0.645437 0.759625
282 1 0.680237 0.655282 0.691966
188 1 0.15545 0.802645 0.826656
187 2 0.167772 0.804583 0.806235
189 1 0.190314 0.799327 0.812308
214 2 0.211028 0.717513 0.685199
215 1 0.194355 0.730057 0.696915
216 1 0.230041 0.732026 0.684464
52 2 0.496998 0.729832 0.685414
53 1 0.496165 0.70647 0.680299
54 1 0.474056 0.73642 0.687123
103 2 0.354638 0.764917 0.731463
104 1 0.372102 0.772776 0.717115
105 1 0.33898 0.782993 0.732311
175 2 0.462013 0.70517 0.737166
176 1 0.479546 0.689408 0.741264
177 1 0.467603 0.724036 0.750785
164 1 0.758214 0.670101 0.762665
43 2 0.162321 0.882952 0.768274
45 1 0.143371 0.868408 0.769687
44 1 0.180455 0.868598 0.762129
61 2 0.518623 0.866715 0.705305
62 1 0.503625 0.86127 0.723139
63 1 0.515706 0.849066 0.689412
16 2 0.396035 0.219431 0.869881
17 1 0.374412 0.223344 0.860406
18 1 0.411128 0.221443 0.851421
274 2 0.400263 0.294984 0.875439
275 1 0.392963 0.317725 0.876914
276 1 0.42364 0.295848 0.880482
277 2 0.882077 0.187261 0.866293
278 1 0.870322 0.203571 0.853315
279 1 0.865021 0.172446 0.874184
283 2 0.155946 0.432865 0.844171
284 1 0.134606 0.427569 0.834725
285 1 0.154214 0.455916 0.850359
130 2 0.33429 0.477207 0.864702
132 1 0.357686 0.472212 0.864165
233 1 0.68514 0.3891 0.83605
92 1 0.164347 0.639501 0.834807
131 1 0.333232 0.501095 0.863772
9 1 0.517362 0.650153 0.836355
145 2 0.584447 0.663891 0.869325
193 2 0.715886 0.60766 0.841821
194 1 0.695475 0.607713 0.854311
195 1 0.718669 0.63036 0.834778
146 1 0.600715 0.677794 0.880035
147 1 0.572647 0.678668 0.854661
ITEM: TIMESTEP
2000
ITEM: NUMBER OF ATOMS
300
ITEM: BOX BOUNDS pp pp pp
-4.5284058597835006e+00 3.5473403859782437e+01
-4.3434048597835009e+00 3.5658404859782436e+01
-4.2069038597834982e+00 3.5794905859782432e+01
ITEM: ATOMS id type xs ys zs
123 1 0.799761 0.332199 0.137932
240 1 0.323364 0.426063 0.134571
21 1 0.496843 0.405094 0.156878
238 2 0.345105 0.434509 0.129227
239 1 0.359826 0.423135 0.144278
19 2 0.510681 0.38613 0.161511
121 2 0.809494 0.354042 0.138785
122 1 0.833095 0.350112 0.138408
88 2 0.129652 0.589624 0.124569
89 1 0.125712 0.60008 0.145729
90 1 0.151565 0.580211 0.126516
250 2 0.492363 0.646119 0.160318
251 1 0.489733 0.662323 0.142908
97 2 0.696797 0.56555 0.16345
98 1 0.700065 0.548135 0.147367
99 1 0.692856 0.585169 0.15033
28 2 0.4468 0.759237 0.158021
241 2 0.647634 0.796831 0.135892
242 1 0.661419 0.815491 0.141755
243 1 0.642319 0.786491 0.156807
254 1 0.806446 0.823214 0.159787
76 2 0.385241 0.148395 0.311025
77 1 0.385563 0.125541 0.318111
78 1 0.408196 0.153704 0.306845
184 2 0.863244 0.162022 0.27136
185 1 0.85669 0.139049 0.272731
246 1 0.138784 0.323462 0.231452
139 2 0.296167 0.213516 0.204969
140 1 0.301167 0.193684 0.21739
141 1 0.280135 0.206493 0.188652
150 1 0.239922 0.325979 0.210611
13 2 0.736615 0.22493 0.287882
14 1 0.734964 0.244935 0.300908
15 1 0.722305 0.209319 0.299022
186 1 0.868203 0.165475 0.248207
244 2 0.12411 0.341859 0.235787
245 1 0.138649 0.359748 0.242202
142 2 0.298777 0.445743 0.241893
143 1 0.294139 0.453641 0.264
144 1 0.278398 0.449279 0.22986
148 2 0.22782 0.338405 0.194127
149 1 0.240856 0.358186 0.190759
20 1 0.498962 0.374189 0.178619
235 2 0.370403 0.368178 0.319737
236 1 0.359082 0.360161 0.300239
237 1 0.359396 0.388756 0.325029
256 2 0.269186 0.618192 0.229468
257 1 0.257918 0.601284 0.242107
258 1 0.285891 0.606319 0.217117
4 2 0.476212 0.559674 0.23082
5 1 0.466406 0.576588 0.244617
6 1 0.483798 0.571423 0.211403
136 2 0.336921 0.641101 0.253398
137 1 0.353506 0.658328 0.252531
138 1 0.349267 0.620756 0.250888
252 1 0.482266 0.656239 0.179508
37 2 0.621048 0.657012 0.215029
38 1 0.613608 0.64232 0.232389
39 1 0.613433 0.646741 0.194803
199 2 0.279935 0.737785 0.196558
200 1 0.293981 0.718551 0.198868
201 1 0.25767 0.729024 0.196839
29 1 0.453878 0.743252 0.17436
30 1 0.431114 0.773109 0.169601
115 2 0.435428 0.689401 0.189742
116 1 0.429923 0.679652 0.210891
117 1 0.414369 0.692048 0.178692
109 2 0.577652 0.720261 0.248635
110 1 0.554749 0.713389 0.249556
111 1 0.590095 0.700211 0.252601
259 2 0.78902 0.768984 0.277973
260 1 0.772109 0.760866 0.29283
261 1 0.785263 0.757106 0.257543
292 2 0.733162 0.701676 0.304391
293 1 0.728875 0.685142 0.32115
294 1 0.74428 0.689734 0.286887
208 2 0.568557 0.849349 0.250288
209 1 0.554875 0.868492 0.245935
210 1 0.57302 0.850381 0.273775
223 2 0.518964 0.850248 0.190729
224 1 0.534136 0.850462 0.172226
225 1 0.513619 0.873286 0.194371
253 2 0.789911 0.83372 0.173527
255 1 0.79948 0.854874 0.179316
204 1 0.414533 0.162608 0.391944
160 2 0.127354 0.22345 0.426684
161 1 0.146251 0.23777 0.429915
162 1 0.127768 0.20864 0.445474
220 2 0.117426 0.265589 0.339103
221 1 0.119997 0.25154 0.358301
222 1 0.13718 0.279092 0.338862
10 2 0.280592 0.174137 0.340628
11 1 0.269515 0.195346 0.340891
12 1 0.30371 0.179402 0.343853
25 2 0.232539 0.24088 0.395825
26 1 0.225625 0.251462 0.375508
27 1 0.213155 0.241555 0.409839
79 2 0.398308 0.259577 0.428981
80 1 0.396772 0.282552 0.435493
81 1 0.377981 0.255341 0.417088
202 2 0.402783 0.170613 0.411191
203 1 0.406721 0.194216 0.411238
124 2 0.585056 0.282176 0.474964
125 1 0.608754 0.279421 0.4768
126 1 0.576246 0.260049 0.477277
286 2 0.701585 0.234907 0.357393
287 1 0.699773 0.211729 0.363058
288 1 0.678941 0.242438 0.355625
69 1 0.126944 0.499722 0.371085
96 1 0.161487 0.338111 0.438984
94 2 0.175364 0.354294 0.449853
95 1 0.169581 0.375078 0.4395
22 2 0.563256 0.426222 0.469558
23 1 0.585747 0.422956 0.462071
24 1 0.558177 0.448837 0.463613
60 1 0.156013 0.533988 0.499001
67 2 0.134462 0.514871 0.388013
68 1 0.147035 0.531397 0.376121
86 1 0.355537 0.611417 0.501132
171 1 0.488539 0.594256 0.474724
169 2 0.51191 0.596378 0.470042
170 1 0.521083 0.57495 0.475455
166 2 0.777571 0.61909 0.484276
167 1 0.772818 0.640975 0.475846
168 1 0.798857 0.621279 0.494987
155 1 0.86722 0.656244 0.436152
112 2 0.140631 0.72596 0.432683
113 1 0.121547 0.71418 0.441029
114 1 0.157968 0.709487 0.431875
265 2 0.300772 0.788333 0.463419
266 1 0.305509 0.809283 0.452871
267 1 0.287907 0.776253 0.447259
268 2 0.306218 0.824064 0.370517
269 1 0.32627 0.825737 0.357566
270 1 0.308142 0.803089 0.381872
154 2 0.871304 0.678678 0.428897
156 1 0.887178 0.687267 0.444608
213 1 0.224761 0.148893 0.613921
73 2 0.255366 0.241117 0.581128
74 1 0.248675 0.218413 0.577615
75 1 0.239945 0.253995 0.56813
211 2 0.221553 0.172577 0.612752
212 1 0.203247 0.175411 0.597604
272 1 0.487544 0.182067 0.573864
271 2 0.508316 0.187132 0.563117
273 1 0.524549 0.17422 0.575048
295 2 0.633198 0.258698 0.59154
296 1 0.650922 0.274774 0.591345
297 1 0.615331 0.269606 0.603132
181 2 0.705156 0.279204 0.548699
182 1 0.725621 0.279341 0.536299
183 1 0.700085 0.256006 0.55165
151 2 0.306583 0.356599 0.524867
152 1 0.318067 0.336404 0.519134
153 1 0.283489 0.351674 0.520998
31 2 0.394933 0.400824 0.534444
32 1 0.417158 0.392106 0.532819
33 1 0.381331 0.381725 0.539217
46 2 0.391092 0.462013 0.524632
47 1 0.387535 0.485501 0.52176
48 1 0.372827 0.454807 0.538309
70 2 0.499461 0.472739 0.562785
71 1 0.506188 0.491932 0.575392
72 1 0.506157 0.454095 0.576208
118 2 0.632228 0.430018 0.507465
119 1 0.656029 0.431649 0.505606
120 1 0.624675 0.452719 0.507911
34 2 0.745923 0.416669 0.657304
36 1 0.747421 0.392787 0.657223
64 2 0.69135 0.482962 0.595003
65 1 0.696246 0.495483 0.575208
66 1 0.710392 0.486332 0.609097
247 2 0.769298 0.483828 0.566818
249 1 0.791959 0.486762 0.559715
83 1 0.155013 0.519803 0.659586
58 2 0.17817 0.542892 0.500552
59 1 0.18201 0.545366 0.524041
85 2 0.332942 0.619189 0.502408
87 1 0.320208 0.59972 0.50801
157 2 0.355835 0.551095 0.580794
158 1 0.345646 0.529744 0.584383
159 1 0.34101 0.566661 0.591306
196 2 0.62876 0.660301 0.5676
197 1 0.625581 0.66276 0.591189
198 1 0.624729 0.637093 0.56339
106 2 0.716041 0.656813 0.501157
107 1 0.695972 0.669837 0.500738
108 1 0.708464 0.634157 0.502523
248 1 0.760748 0.506076 0.568941
217 2 0.631356 0.816656 0.519629
219 1 0.649285 0.800817 0.52015
127 2 0.875029 0.800463 0.556986
128 1 0.854336 0.807595 0.547315
129 1 0.888938 0.819926 0.556421
218 1 0.639829 0.835697 0.531386
100 2 0.135724 0.129265 0.818725
101 1 0.121499 0.110223 0.821495
102 1 0.157911 0.12033 0.819408
1 2 0.476612 0.140084 0.781782
2 1 0.484444 0.128684 0.801309
3 1 0.495695 0.152116 0.773801
229 2 0.582654 0.157077 0.773361
231 1 0.598107 0.142607 0.784515
133 2 0.272262 0.24819 0.810847
134 1 0.287758 0.26566 0.805621
135 1 0.285377 0.228183 0.810325
55 2 0.484528 0.260769 0.797661
56 1 0.497561 0.278871 0.788997
57 1 0.482142 0.265705 0.820953
226 2 0.345189 0.206408 0.784681
227 1 0.367721 0.198773 0.787255
228 1 0.347326 0.228493 0.775722
172 2 0.610754 0.224062 0.736362
173 1 0.628506 0.239225 0.731111
174 1 0.616555 0.203849 0.724944
190 2 0.64881 0.300278 0.822942
191 1 0.650509 0.323692 0.827578
230 1 0.571887 0.169111 0.791019
192 1 0.671397 0.292396 0.8235
84 1 0.153749 0.482456 0.665578
206 1 0.154403 0.488677 0.730956
178 2 0.324165 0.381508 0.767306
179 1 0.300473 0.384004 0.769556
180 1 0.327434 0.358041 0.76396
207 1 0.167288 0.495107 0.765955
289 2 0.246723 0.452057 0.695288
290 1 0.227578 0.449947 0.681088
291 1 0.242833 0.472173 0.707651
298 2 0.341121 0.343195 0.687451
299 1 0.335706 0.366259 0.690814
300 1 0.353312 0.336971 0.707078
35 1 0.764106 0.423774 0.671142
40 2 0.821208 0.405252 0.757013
41 1 0.822294 0.407709 0.733235
42 1 0.803521 0.419892 0.763755
232 2 0.70003 0.39762 0.819517
234 1 0.686496 0.411104 0.805108
205 2 0.151852 0.503389 0.749655
82 2 0.167012 0.501885 0.669958
91 2 0.187568 0.63662 0.830261
93 1 0.189996 0.613155 0.826248
8 1 0.49791 0.648878 0.803736
262 2 0.39149 0.643255 0.777058
263 1 0.378727 0.646123 0.797095
264 1 0.376234 0.633186 0.761617
7 2 0.506411 0.634726 0.821058
49 2 0.578391 0.542235 0.764951
50 1 0.555373 0.537408 0.760542
51 1 0.588797 0.520758 0.7667
280 2 0.663939 0.641099 0.701651
281 1 0.645237 0.643475 0.686913
163 2 0.751855 0.648039 0.768725
165 1 0.729936 0.645435 0.759486
282 1 0.680434 0.656046 0.69287
188 1 0.156458 0.80236 0.827183
187 2 0.167961 0.804356 0.806296
189 1 0.190869 0.79994 0.811617
214 2 0.211118 0.717589 0.685148
215 1 0.194524 0.729741 0.697378
216 1 0.229967 0.732308 0.68436
52 2 0.49686 0.730089 0.685151
53 1 0.496126 0.7068 0.679702
54 1 0.474023 0.737179 0.684269
103 2 0.354413 0.764998 0.731526
104 1 0.372318 0.772511 0.717542
105 1 0.338892 0.783209 0.731705
175 2 0.461931 0.705374 0.737029
176 1 0.478603 0.688785 0.741438
177 1 0.467338 0.723392 0.751818
164 1 0.758194 0.670373 0.762929
43 2 0.162356 0.882711 0.768392
45 1 0.143685 0.867778 0.769371
44 1 0.180646 0.868993 0.761327
61 2 0.518909 0.866916 0.705361
62 1 0.504109 0.861301 0.723306
63 1 0.516416 0.848998 0.689698
16 2 0.395761 0.219434 0.869788
17 1 0.374105 0.224219 0.860806
18 1 0.410673 0.222172 0.851275
274 2 0.399988 0.294686 0.875665
275 1 0.393032 0.317508 0.877487
276 1 0.42334 0.295097 0.880873
277 2 0.881841 0.187357 0.866162
278 1 0.870828 0.204178 0.853186
279 1 0.864191 0.173029 0.873631
283 2 0.155804 0.432772 0.844012
284 1 0.134248 0.427546 0.835034
285 1 0.154517 0.456011 0.849568
130 2 0.334269 0.477326 0.864757
132 1 0.357671 0.472537 0.863339
233 1 0.68501 0.390118 0.836567
92 1 0.164235 0.639568 0.834675
131 1 0.332956 0.501196 0.863712
9 1 0.517645 0.649644 0.83602
145 2 0.584395 0.663906 0.869431
193 2 0.716108 0.60783 0.842072
194 1 0.695274 0.608345 0.853832
195 1 0.719112 0.630229 0.834206
146 1 0.601192 0.676916 0.880442
147 1 0.573286 0.679428 0.855
ITEM: TIMESTEP
3000
ITEM: NUMBER OF ATOMS
300
ITEM: BOX BOUNDS pp pp pp
-4.5292260371793169e+00 3.5474224037178473e+01
-4.3442250371793172e+00 3.5659225037178473e+01
-4.2077240371793145e+00 3.5795726037178468e+01